 --------------------------
 #p opt freq ccsd/6-31++G**
 --------------------------

 ----
 2H2O
 ----
 Symbolic Z-matrix:
 Charge =  0 Multiplicity = 1

 SCF Done:  E(RHF) =  -151.898254185     A.U. after   11 cycles
 E2 =    -0.4170492762D+00 EUMP2 =    -0.15231530346088D+03
 SCF Done:  E(RHF) =  -151.967729359     A.U. after   10 cycles
 E2 =    -0.4152707413D+00 EUMP2 =    -0.15238300010021D+03
 SCF Done:  E(RHF) =  -152.029361295     A.U. after   11 cycles
 E2 =    -0.4148012119D+00 EUMP2 =    -0.15244416250723D+03
 SCF Done:  E(RHF) =  -152.037484800     A.U. after   10 cycles
 E2 =    -0.4171282773D+00 EUMP2 =    -0.15245461307695D+03
 SCF Done:  E(RHF) =  -152.055713918     A.U. after   10 cycles
 E2 =    -0.4118656864D+00 EUMP2 =    -0.15246757960424D+03
 SCF Done:  E(RHF) =  -152.061002950     A.U. after   10 cycles
 E2 =    -0.4093577854D+00 EUMP2 =    -0.15247036073516D+03
 SCF Done:  E(RHF) =  -152.063621971     A.U. after   10 cycles
 E2 =    -0.4081163508D+00 EUMP2 =    -0.15247173832130D+03
 SCF Done:  E(RHF) =  -152.065261598     A.U. after   10 cycles
 E2 =    -0.4075466856D+00 EUMP2 =    -0.15247280828346D+03
 SCF Done:  E(RHF) =  -152.066028521     A.U. after   10 cycles
 E2 =    -0.4072766443D+00 EUMP2 =    -0.15247330516522D+03
 SCF Done:  E(RHF) =  -152.066384644     A.U. after   10 cycles
 E2 =    -0.4072371939D+00 EUMP2 =    -0.15247362183789D+03
 E2 =    -0.4072230228D+00 EUMP2 =    -0.15247401942977D+03
 E2 =    -0.4072679410D+00 EUMP2 =    -0.15247427367769D+03
 E2 =    -0.4074109929D+00 EUMP2 =    -0.15247456717641D+03
 E2 =    -0.4075569250D+00 EUMP2 =    -0.15247478171842D+03
 E2 =    -0.4075792077D+00 EUMP2 =    -0.15247482380728D+03
 E2 =    -0.4076418093D+00 EUMP2 =    -0.15247486696301D+03
 E2 =    -0.4077616616D+00 EUMP2 =    -0.15247493049240D+03
 E2 =    -0.4078753904D+00 EUMP2 =    -0.15247502497374D+03
 E2 =    -0.4079300126D+00 EUMP2 =    -0.15247511509793D+03
 E2 =    -0.4077748562D+00 EUMP2 =    -0.15247512275312D+03
 E2 =    -0.4077910250D+00 EUMP2 =    -0.15247513319954D+03
 Optimization completed.
    -- Stationary point found.
 Normal termination of Gaussian DV at Wed Feb 23 12:02:50 2022.

 ----------------------------------------------------------------------
 #P Geom=AllCheck Guess=TCheck SCRF=Check GenChk RCCSD(FC)/6-31++G(d,p)
  Freq
 ----------------------------------------------------------------------

 Structure from the checkpoint file:  "2h2o.chk"
 ----
 2H2O
 ----
 Charge =  0 Multiplicity = 1

                         Standard orientation:
 ---------------------------------------------------------------------
 Center     Atomic      Atomic             Coordinates (Angstroms)
 Number     Number       Type             X           Y           Z
 ---------------------------------------------------------------------
      1          8           0       -0.820734    0.394440    1.065746
      2          1           0        0.137951    0.429649    0.962772
      3          1           0       -1.071377    1.209505    1.510770
      4          1           0       -0.137951   -0.429649   -0.962772
      5          8           0        0.820734   -0.394440   -1.065746
      6          1           0        1.071377   -1.209505   -1.510770
 ---------------------------------------------------------------------

 E2 =    -0.4077910250D+00 EUMP2 =    -0.15247513319952D+03
 E2 =    -0.4077591773D+00 EUMP2 =    -0.15247512962037D+03
 E2 =    -0.4078229200D+00 EUMP2 =    -0.15247513458815D+03
 E2 =    -0.4077502063D+00 EUMP2 =    -0.15247512997370D+03
 E2 =    -0.4078319253D+00 EUMP2 =    -0.15247513486554D+03
 E2 =    -0.4077728331D+00 EUMP2 =    -0.15247513167268D+03
 E2 =    -0.4078093045D+00 EUMP2 =    -0.15247513422963D+03
 E2 =    -0.4078327439D+00 EUMP2 =    -0.15247513570720D+03
 E2 =    -0.4077492981D+00 EUMP2 =    -0.15247512875227D+03
 SCF Done:  E(RHF) =  -152.067338324     A.U. after    7 cycles
 E2 =    -0.4077948501D+00 EUMP2 =    -0.15247513317419D+03
 SCF Done:  E(RHF) =  -152.067345826     A.U. after    7 cycles
 E2 =    -0.4077872564D+00 EUMP2 =    -0.15247513308289D+03
 SCF Done:  E(RHF) =  -152.067345149     A.U. after    7 cycles
 E2 =    -0.4077874358D+00 EUMP2 =    -0.15247513258510D+03
 SCF Done:  E(RHF) =  -152.067339073     A.U. after    7 cycles
 E2 =    -0.4077946623D+00 EUMP2 =    -0.15247513373557D+03
 SCF Done:  E(RHF) =  -152.067349410     A.U. after    7 cycles
 E2 =    -0.4077829910D+00 EUMP2 =    -0.15247513240064D+03
 SCF Done:  E(RHF) =  -152.067334569     A.U. after    7 cycles
 E2 =    -0.4077991111D+00 EUMP2 =    -0.15247513368036D+03
 SCF Done:  E(RHF) =  -152.067307690     A.U. after    7 cycles
 E2 =    -0.4078269198D+00 EUMP2 =    -0.15247513460972D+03
 SCF Done:  E(RHF) =  -152.067375226     A.U. after    7 cycles
 E2 =    -0.4077551352D+00 EUMP2 =    -0.15247513036165D+03
 SCF Done:  E(RHF) =  -152.067324016     A.U. after    7 cycles
 E2 =    -0.4078101227D+00 EUMP2 =    -0.15247513413901D+03
 SCF Done:  E(RHF) =  -152.067359871     A.U. after    7 cycles
 E2 =    -0.4077719585D+00 EUMP2 =    -0.15247513182900D+03

 Alpha  occ. eigenvalues --  -20.57970 -20.57966  -1.35628  -1.34572  -0.73466
 Alpha  occ. eigenvalues --   -0.70269  -0.58750  -0.57315  -0.50950  -0.50516
 Alpha virt. eigenvalues --    0.04350   0.05923   0.08580   0.10081   0.23028
 Alpha virt. eigenvalues --    0.25819   0.27273   0.28549   0.29470   0.32105
 Alpha virt. eigenvalues --    0.34300   0.35941   0.37489   0.41421   0.42721

 Mulliken charges:
               1
     1  O   -0.717801
     2  H    0.372191
     3  H    0.345612
     4  H    0.372197
     5  O   -0.717787
     6  H    0.345588
 Sum of Mulliken charges =  -0.00000

 Dipole moment (field-independent basis, Debye):
    X=             -0.0001    Y=              0.0005    Z=             -0.0016  Tot=              0.0017
 Quadrupole moment (field-independent basis, Debye-Ang):
   XX=            -14.6652   YY=             -9.3837   ZZ=            -11.7383
   XY=             -2.6307   XZ=              0.7092   YZ=              6.0461

 ******    1 imaginary frequencies (negative Signs) ******

                      1                      2                      3
                     AU                     AU                     AG
 Frequencies --   -135.5539               125.7028               156.0942
 Red. masses --      1.0345                 1.0549                 4.0507
 Frc consts  --      0.0112                 0.0098                 0.0581
 IR Inten    --    241.8953               297.4036                 0.0000

                      4                      5                      6
                     AG                     AU                     AG
 Frequencies --    195.5657               416.4730               543.4880
 Red. masses --      1.2362                 1.0834                 1.0538
 Frc consts  --      0.0279                 0.1107                 0.1834
 IR Inten    --      0.0000               408.2635                 0.0000

                      7                      8                      9
                     AU                     AG                     AG
 Frequencies --   1642.9510              1660.3371              3856.1704
 Red. masses --      1.0835                 1.0784                 1.0458
 Frc consts  --      1.7232                 1.7515                 9.1626
 IR Inten    --    190.4692                 0.0000                 0.0000

                     10                     11                     12
                     AU                     AG                     AU
 Frequencies --   3864.5926              3992.7185              3994.5539
 Red. masses --      1.0452                 1.0820                 1.0823
 Frc consts  --      9.1974                10.1629                10.1752
 IR Inten    --     37.4995                 0.0000               143.9680

 - Thermochemistry -
 -------------------
 Temperature   298.150 Kelvin.  Pressure   1.00000 Atm.
 Atom     1 has atomic number  8 and mass  15.99491

 Molecular mass:    36.02113 amu.
 Principal axes and moments of inertia in atomic units:
                           1         2         3
     Eigenvalues --     6.26714 263.43392 265.97160
           X           -0.56207   0.75315  -0.34183
           Y            0.32192   0.57991   0.74838
           Z            0.76187   0.31060  -0.56840
 This molecule is an asymmetric top.
 Rotational symmetry number  1.
 Rotational temperatures (Kelvin)     13.82033     0.32879     0.32565
 Rotational constants (GHZ):         287.96888     6.85083     6.78547
    1 imaginary frequencies ignored.
 Zero-point vibrational energy     122310.1 (Joules/Mol)
                                   29.23281 (Kcal/Mol)
 Warning -- explicit consideration of   5 degrees of freedom as
           vibrations may cause significant error
 Vibrational temperatures:    180.86   224.58   281.38   599.21   781.96
          (Kelvin)           2363.84  2388.85  5548.17  5560.29  5744.63
                             5747.27

 Zero-point correction=                           0.046585 (Hartree/Particle)
 Thermal correction to Energy=                    0.051798
 Thermal correction to Enthalpy=                  0.052742
 Thermal correction to Gibbs Free Energy=         0.021078
 Sum of electronic and zero-point Energies=           -152.443767
 Sum of electronic and thermal Energies=              -152.438555
 Sum of electronic and thermal Enthalpies=            -152.437611
 Sum of electronic and thermal Free Energies=         -152.469275

                     E (Thermal)             CV                S
                      KCal/Mol        Cal/Mol-Kelvin    Cal/Mol-Kelvin
 Total                   32.504             14.307             66.643
 Electronic               0.000              0.000              0.000
 Translational            0.889              2.981             36.674
 Rotational               0.889              2.981             20.712
 Vibrational             30.726              8.345              9.256
 Vibration     1          0.611              1.927              3.011
 Vibration     2          0.620              1.896              2.597
 Vibration     3          0.636              1.846              2.174
 Vibration     4          0.780              1.434              0.904
 Vibration     5          0.899              1.154              0.558

 Optimization completed.
    -- Stationary point found.
 Normal termination of Gaussian DV at Wed Feb 23 12:09:49 2022.
