 ----------------------------------------------------------------------
 #p nonstd 1/38=1,172=1/1; 2/12=2,15=1,40=1/2; 3/5=16,6=1,7=10,11=1,14=
 -4,25=1,30=1,116=1/1,2,3; 4//1; 5/5=2,38=5/2; 6/7=3,28=1/1; 99/5=1,9=1
 /99;
 ----------------------------------------------------------------------

 ---------------
 water dimer RHF
 ---------------
 Symbolic Z-matrix:
 Charge =  0 Multiplicity = 1

                          Input orientation:
 ---------------------------------------------------------------------
 Center     Atomic      Atomic             Coordinates (Angstroms)
 Number     Number       Type             X           Y           Z
 ---------------------------------------------------------------------
      1          8           0       -0.820734    0.394440    1.065746
      2          1           0        0.137951    0.429649    0.962772
      3          1           0       -1.071377    1.209505    1.510770
      4          1           0       -0.137951   -0.429649   -0.962772
      5          8           0        0.820734   -0.394440   -1.065746
      6          1           0        1.071377   -1.209505   -1.510770
 ---------------------------------------------------------------------

 SCF Done:  E(RHF) =  -152.124934965     A.U. after   10 cycles

 Alpha  occ. eigenvalues --      -20.56417     -20.56417      -1.35349      -1.34291      -0.73266
 Alpha  occ. eigenvalues --       -0.70072      -0.58835      -0.57425      -0.51051      -0.50626
 Alpha virt. eigenvalues --        0.02969       0.04062       0.05501       0.06951       0.12797
 Alpha virt. eigenvalues --        0.14642       0.16502       0.16620       0.18343       0.19841
 Alpha virt. eigenvalues --        0.21303       0.23440       0.24731       0.24825       0.26042

 Mulliken charges:
               1
     1  O   -0.467985
     2  H    0.267985
     3  H    0.200000
     4  H    0.267985
     5  O   -0.467985
     6  H    0.200000
 Sum of Mulliken charges =  -0.00000

 Dipole moment (field-independent basis, Debye):
    X=             -0.0000    Y=             -0.0000    Z=              0.0000  Tot=              0.0000
 Quadrupole moment (field-independent basis, Debye-Ang):
   XX=            -13.8790   YY=             -9.1807   ZZ=            -11.3887
   XY=             -2.5016   XZ=              0.5455   YZ=              5.5939

 Normal termination of Gaussian DV at Mon Feb 28 12:39:03 2022.
